Program Version,EnergyPlus, Version 8.4.0-832e4bb9cb, YMD=2016.01.26 16:09
1,5,Environment Title[],Latitude[deg],Longitude[deg],Time Zone[],Elevation[m]
2,6,Day of Simulation[],Month[],Day of Month[],DST Indicator[1=yes 0=no],Hour[],StartMinute[],EndMinute[],DayType
3,3,Cumulative Day of Simulation[],Month[],Day of Month[],DST Indicator[1=yes 0=no],DayType  ! When Daily Meters Requested
4,2,Cumulative Days of Simulation[],Month[]  ! When Monthly Meters Requested
5,1,Cumulative Days of Simulation[] ! When Run Period Meters Requested
108,9,Electricity:Facility [J] !Monthly  [Value,Min,Day,Hour,Minute,Max,Day,Hour,Minute]
118,9,Electricity:HVAC [J] !Monthly  [Value,Min,Day,Hour,Minute,Max,Day,Hour,Minute]
109,11,Electricity:Facility [J] !RunPeriod [Value,Min,Month,Day,Hour,Minute,Max,Month,Day,Hour,Minute]
119,11,Electricity:HVAC [J] !RunPeriod [Value,Min,Month,Day,Hour,Minute,Max,Month,Day,Hour,Minute]
End of Data Dictionary
1,DENVER CENTENNIAL ANN HTG 99.6% CONDNS DB,  37.62,-122.40,  -8.00,   2.00
4,1,12
108,619024473.820142,4298781.0630237,21, 1,10,4298781.07006272,21,24,60
118,619024473.820142,4298781.0630237,21, 1,10,4298781.07006272,21,24,60
5,1
109,619024473.820142,4298781.0630237,12,21, 1,10,4298781.07006272,12,21,24,60
119,619024473.820142,4298781.0630237,12,21, 1,10,4298781.07006272,12,21,24,60
1,DENVER CENTENNIAL ANN CLG 1% CONDNS DB=>MWB,  37.62,-122.40,  -8.00,   2.00
4,1, 7
108,5002622.44897959,0.0,21, 1,20,604285.714285714,21,12,40
118,5002622.44897959,0.0,21, 1,20,604285.714285714,21,12,40
5,1
109,5002622.44897959,0.0, 7,21, 1,20,604285.714285714, 7,21,12,40
119,5002622.44897959,0.0, 7,21, 1,20,604285.714285714, 7,21,12,40
1,San Francisco Intl Ap CA USA TMY3 WMO#=724940,  37.62,-122.40,  -8.00,   2.00
4,31, 1
108,3769870373.49231,0.0, 1,14,10,1893828.20232499,24, 7,60
118,3769870373.49231,0.0, 1,14,10,1893828.20232499,24, 7,60
4,59, 2
108,2384105853.82117,0.0, 1,11,30,1603655.83887482, 4, 7,60
118,2384105853.82117,0.0, 1,11,30,1603655.83887482, 4, 7,60
4,90, 3
108,1853360651.84639,0.0, 1,12,20,1598773.5220017,23, 5,60
118,1853360651.84639,0.0, 1,12,20,1598773.5220017,23, 5,60
4,120, 4
108,1246752583.90048,0.0, 1, 8,20,1147912.1383435,24, 5,60
118,1246752583.90048,0.0, 1, 8,20,1147912.1383435,24, 5,60
4,151, 5
108,811860569.726068,0.0, 1, 7,30,987880.077191851,10, 4,60
118,811860569.726068,0.0, 1, 7,30,987880.077191851,10, 4,60
4,181, 6
108,742970387.865435,0.0, 1, 7,50,1065757.28618953,17, 3,60
118,742970387.865435,0.0, 1, 7,50,1065757.28618953,17, 3,60
4,212, 7
108,311753627.440834,0.0, 1, 1,20,691146.357365819,22, 5,60
118,311753627.440834,0.0, 1, 1,20,691146.357365819,22, 5,60
4,243, 8
108,323481547.552393,0.0, 1, 1,10,906428.571428571, 3,11,50
118,323481547.552393,0.0, 1, 1,10,906428.571428571, 3,11,50
4,273, 9
108,235944358.048646,0.0, 1, 1,10,906428.571428571,16,12,50
118,235944358.048646,0.0, 1, 1,10,906428.571428571,16,12,50
4,304,10
108,1046266492.82332,0.0, 1, 1,10,1110333.00240075,31, 5,60
118,1046266492.82332,0.0, 1, 1,10,1110333.00240075,31, 5,60
4,334,11
108,2030157262.4792,0.0, 1, 9,20,1777618.66308457,30, 5,20
118,2030157262.4792,0.0, 1, 9,20,1777618.66308457,30, 5,20
4,365,12
108,3346357284.25689,0.0, 1,11,30,1901431.64760427,26, 5,60
118,3346357284.25689,0.0, 1,11,30,1901431.64760427,26, 5,60
5,365
109,18102880993.2531,0.0, 1, 1,14,10,1901431.64760427,12,26, 5,60
119,18102880993.2531,0.0, 1, 1,14,10,1901431.64760427,12,26, 5,60
End of Data
 Number of Records Written=          34
