Program Version,EnergyPlus, Version 8.4.0-832e4bb9cb, YMD=2016.01.26 16:52
1,5,Environment Title[],Latitude[deg],Longitude[deg],Time Zone[],Elevation[m]
2,6,Day of Simulation[],Month[],Day of Month[],DST Indicator[1=yes 0=no],Hour[],StartMinute[],EndMinute[],DayType
3,3,Cumulative Day of Simulation[],Month[],Day of Month[],DST Indicator[1=yes 0=no],DayType  ! When Daily Report Variables Requested
4,2,Cumulative Days of Simulation[],Month[]  ! When Monthly Report Variables Requested
5,1,Cumulative Days of Simulation[] ! When Run Period Report Variables Requested
6,1,Environment,Site Outdoor Air Drybulb Temperature [C] !Hourly
7,1,Environment,Site Outdoor Air Wetbulb Temperature [C] !Hourly
8,1,Environment,Site Outdoor Air Humidity Ratio [kgWater/kgDryAir] !Hourly
9,1,Environment,Site Outdoor Air Relative Humidity [%] !Hourly
10,1,MAIN ZONE,Zone Mean Air Temperature [C] !Hourly
135,1,MAIN ZONE BASEBOARD,Baseboard Electric Power [W] !Hourly
323,1,SUPPLY INLET NODE,System Node Temperature [C] !Hourly
324,1,FAN INLET NODE,System Node Temperature [C] !Hourly
325,1,EVAP COOLER INLET NODE,System Node Temperature [C] !Hourly
326,1,SUPPLY OUTLET NODE,System Node Temperature [C] !Hourly
327,1,SUPPLY OUTLET NODE,System Node Mass Flow Rate [kg/s] !Hourly
328,1,OUTSIDE AIR INLET NODE,System Node Temperature [C] !Hourly
329,1,MAIN ZONE OUTLET NODE,System Node Temperature [C] !Hourly
330,1,MAIN ZONE NODE,System Node Temperature [C] !Hourly
331,1,MAIN ZONE INLET NODE,System Node Temperature [C] !Hourly
332,1,ZONE EQUIPMENT INLET NODE,System Node Temperature [C] !Hourly
333,1,ZONE EQUIPMENT OUTLET NODE,System Node Temperature [C] !Hourly
334,1,RELIEF AIR OUTLET NODE,System Node Temperature [C] !Hourly
End of Data Dictionary
1,DENVER CENTENNIAL ANN HTG 99.6% CONDNS DB,  37.62,-122.40,  -8.00,   2.00
2,1,12,21, 0, 1, 0.00,60.00,WinterDesignDay
6,-18.8
7,-18.8
8,7.118208673643848E-04
9,100.
10,20.
135,7164.63510571707
323,20.
324,20.
325,20.
326,20.
327,0.0
328,-18.8
329,20.
330,20.
331,20.
332,20.
333,20.
334,20.
2,1,12,21, 0, 2, 0.00,60.00,WinterDesignDay
6,-18.8
7,-18.8
8,7.118208673643848E-04
9,100.
10,20.
135,7164.6351072122
323,20.
324,20.
325,20.
326,20.
327,0.0
328,-18.8
329,20.
330,20.
331,20.
332,20.
333,20.
334,20.
2,1,12,21, 0, 3, 0.00,60.00,WinterDesignDay
6,-18.8
7,-18.8
8,7.118208673643848E-04
9,100.
10,20.
135,7164.63510851282
323,20.
324,20.
325,20.
326,20.
327,0.0
328,-18.8
329,20.
330,20.
331,20.
332,20.
333,20.
334,20.
2,1,12,21, 0, 4, 0.00,60.00,WinterDesignDay
6,-18.8
7,-18.8
8,7.118208673643848E-04
9,100.
10,20.
135,7164.63510964429
323,20.
324,20.
325,20.
326,20.
327,0.0
328,-18.8
329,20.
330,20.
331,20.
332,20.
333,20.
334,20.
2,1,12,21, 0, 5, 0.00,60.00,WinterDesignDay
6,-18.8
7,-18.8
8,7.118208673643848E-04
9,100.
10,20.
135,7164.63511062852
323,20.
324,20.
325,20.
326,20.
327,0.0
328,-18.8
329,20.
330,20.
331,20.
332,20.
333,20.
334,20.
2,1,12,21, 0, 6, 0.00,60.00,WinterDesignDay
6,-18.8
7,-18.8
8,7.118208673643848E-04
9,100.
10,20.
135,7164.63511148474
323,20.
324,20.
325,20.
326,20.
327,0.0
328,-18.8
329,20.
330,20.
331,20.
332,20.
333,20.
334,20.
2,1,12,21, 0, 7, 0.00,60.00,WinterDesignDay
6,-18.8
7,-18.8
8,7.118208673643848E-04
9,100.
10,20.
135,7164.63511222959
323,20.
324,20.
325,20.
326,20.
327,0.0
328,-18.8
329,20.
330,20.
331,20.
332,20.
333,20.
334,20.
2,1,12,21, 0, 8, 0.00,60.00,WinterDesignDay
6,-18.8
7,-18.8
8,7.118208673643848E-04
9,100.
10,20.
135,7164.63511287754
323,20.
324,20.
325,20.
326,20.
327,0.0
328,-18.8
329,20.
330,20.
331,20.
332,20.
333,20.
334,20.
2,1,12,21, 0, 9, 0.00,60.00,WinterDesignDay
6,-18.8
7,-18.8
8,7.118208673643848E-04
9,100.
10,20.
135,7164.63511344124
323,20.
324,20.
325,20.
326,20.
327,0.0
328,-18.8
329,20.
330,20.
331,20.
332,20.
333,20.
334,20.
2,1,12,21, 0,10, 0.00,60.00,WinterDesignDay
6,-18.8
7,-18.8
8,7.118208673643848E-04
9,100.
10,20.
135,7164.63511393159
323,20.
324,20.
325,20.
326,20.
327,0.0
328,-18.8
329,20.
330,20.
331,20.
332,20.
333,20.
334,20.
2,1,12,21, 0,11, 0.00,60.00,WinterDesignDay
6,-18.8
7,-18.8
8,7.118208673643848E-04
9,100.
10,20.
135,7164.63511435815
323,20.
324,20.
325,20.
326,20.
327,0.0
328,-18.8
329,20.
330,20.
331,20.
332,20.
333,20.
334,20.
2,1,12,21, 0,12, 0.00,60.00,WinterDesignDay
6,-18.8
7,-18.8
8,7.118208673643848E-04
9,100.
10,20.
135,7164.63511472921
323,20.
324,20.
325,20.
326,20.
327,0.0
328,-18.8
329,20.
330,20.
331,20.
332,20.
333,20.
334,20.
2,1,12,21, 0,13, 0.00,60.00,WinterDesignDay
6,-18.8
7,-18.8
8,7.118208673643848E-04
9,100.
10,20.
135,7164.63511505202
323,20.
324,20.
325,20.
326,20.
327,0.0
328,-18.8
329,20.
330,20.
331,20.
332,20.
333,20.
334,20.
2,1,12,21, 0,14, 0.00,60.00,WinterDesignDay
6,-18.8
7,-18.8
8,7.118208673643848E-04
9,100.
10,20.
135,7164.63511533282
323,20.
324,20.
325,20.
326,20.
327,0.0
328,-18.8
329,20.
330,20.
331,20.
332,20.
333,20.
334,20.
2,1,12,21, 0,15, 0.00,60.00,WinterDesignDay
6,-18.8
7,-18.8
8,7.118208673643848E-04
9,100.
10,20.
135,7164.63511557709
323,20.
324,20.
325,20.
326,20.
327,0.0
328,-18.8
329,20.
330,20.
331,20.
332,20.
333,20.
334,20.
2,1,12,21, 0,16, 0.00,60.00,WinterDesignDay
6,-18.8
7,-18.8
8,7.118208673643848E-04
9,100.
10,20.
135,7164.6351157896
323,20.
324,20.
325,20.
326,20.
327,0.0
328,-18.8
329,20.
330,20.
331,20.
332,20.
333,20.
334,20.
2,1,12,21, 0,17, 0.00,60.00,WinterDesignDay
6,-18.8
7,-18.8
8,7.118208673643848E-04
9,100.
10,20.
135,7164.63511597445
323,20.
324,20.
325,20.
326,20.
327,0.0
328,-18.8
329,20.
330,20.
331,20.
332,20.
333,20.
334,20.
2,1,12,21, 0,18, 0.00,60.00,WinterDesignDay
6,-18.8
7,-18.8
8,7.118208673643848E-04
9,100.
10,20.
135,7164.63511613525
323,20.
324,20.
325,20.
326,20.
327,0.0
328,-18.8
329,20.
330,20.
331,20.
332,20.
333,20.
334,20.
2,1,12,21, 0,19, 0.00,60.00,WinterDesignDay
6,-18.8
7,-18.8
8,7.118208673643848E-04
9,100.
10,20.
135,7164.63511627514
323,20.
324,20.
325,20.
326,20.
327,0.0
328,-18.8
329,20.
330,20.
331,20.
332,20.
333,20.
334,20.
2,1,12,21, 0,20, 0.00,60.00,WinterDesignDay
6,-18.8
7,-18.8
8,7.118208673643848E-04
9,100.
10,20.
135,7164.63511639684
323,20.
324,20.
325,20.
326,20.
327,0.0
328,-18.8
329,20.
330,20.
331,20.
332,20.
333,20.
334,20.
2,1,12,21, 0,21, 0.00,60.00,WinterDesignDay
6,-18.8
7,-18.8
8,7.118208673643848E-04
9,100.
10,20.
135,7164.63511650271
323,20.
324,20.
325,20.
326,20.
327,0.0
328,-18.8
329,20.
330,20.
331,20.
332,20.
333,20.
334,20.
2,1,12,21, 0,22, 0.00,60.00,WinterDesignDay
6,-18.8
7,-18.8
8,7.118208673643848E-04
9,100.
10,20.
135,7164.63511659477
323,20.
324,20.
325,20.
326,20.
327,0.0
328,-18.8
329,20.
330,20.
331,20.
332,20.
333,20.
334,20.
2,1,12,21, 0,23, 0.00,60.00,WinterDesignDay
6,-18.8
7,-18.8
8,7.118208673643848E-04
9,100.
10,20.
135,7164.63511667488
323,20.
324,20.
325,20.
326,20.
327,0.0
328,-18.8
329,20.
330,20.
331,20.
332,20.
333,20.
334,20.
2,1,12,21, 0,24, 0.00,60.00,WinterDesignDay
6,-18.8
7,-18.8
8,7.118208673643848E-04
9,100.
10,20.
135,7164.63511674456
323,20.
324,20.
325,20.
326,20.
327,0.0
328,-18.8
329,20.
330,20.
331,20.
332,20.
333,20.
334,20.
1,DENVER CENTENNIAL ANN CLG 1% CONDNS DB=>MWB,  37.62,-122.40,  -8.00,   2.00
2,1, 7,21, 0, 1, 0.00,60.00,SummerDesignDay
6,19.004
7,10.3101443552789
8,4.256997758442676E-03
9,31.3290008172662
10,22.2942469810833
135,0.0
323,22.2811231802984
324,21.8291451359545
325,21.9052963258116
326,21.1420173223723
327,0.195653768353571
328,19.004
329,22.2811231802984
330,22.2942469810833
331,21.1420173223723
332,21.1420173223723
333,22.2811231802984
334,22.2811231802984
2,1, 7,21, 0, 2, 0.00,60.00,SummerDesignDay
6,18.2693333333333
7,9.9874358711717
8,4.256998525656714E-03
9,32.8008490211457
10,21.7154072713621
135,0.0
323,21.7037394408043
324,21.3409112379646
325,21.3994890760705
326,20.8389697850875
327,0.150502898733516
328,18.2693333333333
329,21.7037394408043
330,21.7154072713621
331,20.8389697850875
332,20.8389697850875
333,21.7037394408043
334,21.7037394408043
2,1, 7,21, 0, 3, 0.00,60.00,SummerDesignDay
6,17.75
7,9.7571766523394
8,4.256998755781297E-03
9,33.8891681836515
10,22.3202613655238
135,0.0
323,22.194124047467
324,21.9900063417181
325,22.0192952606405
326,21.7507249163448
327,7.525144936675815E-02
328,17.75
329,22.194124047467
330,22.3202613655238
331,21.7507249163448
332,21.7507249163448
333,22.194124047467
334,22.194124047467
2,1, 7,21, 0, 4, 0.00,60.00,SummerDesignDay
6,17.294
7,9.55351137657748
8,4.256998263668083E-03
9,34.8791833741348
10,22.4368806648867
135,0.0
323,22.3440963163165
324,22.1112129854837
325,22.1405019044403
326,21.8826490697102
327,7.525144936675815E-02
328,17.294
329,22.3440963163165
330,22.4368806648867
331,21.8826490697102
332,21.8826490697102
333,22.3440963163165
334,22.3440963163165
2,1, 7,21, 0, 5, 0.00,60.00,SummerDesignDay
6,16.9266666666667
7,9.38848685649243
8,4.256998706051704E-03
9,35.6995999026955
10,22.6067098243645
135,0.0
323,22.5018889264813
324,22.5018889264813
325,22.5018889264813
326,22.5018889264813
327,0.0
328,16.9266666666667
329,22.5018889264813
330,22.6067098243645
331,22.5018889264813
332,22.5018889264813
333,22.5018889264813
334,22.5018889264813
2,1, 7,21, 0, 6, 0.00,60.00,SummerDesignDay
6,16.9773333333333
7,9.41130606882442
8,4.256998733535415E-03
9,35.5850583626194
10,22.8495150516635
135,0.0
323,22.8339336341358
324,22.8339336341358
325,22.8339336341358
326,22.8339336341358
327,0.0
328,16.9773333333333
329,22.8339336341358
330,22.8495150516635
331,22.8339336341358
332,22.8339336341358
333,22.8339336341358
334,22.8339336341358
2,1, 7,21, 0, 7, 0.00,60.00,SummerDesignDay
6,17.7246666666667
7,9.74565431390193
8,4.256999227646339E-03
9,33.9490119940455
10,22.4711555650185
135,0.0
323,22.4058521759187
324,22.196995089016
325,22.2262840081008
326,21.9586094398506
327,7.525144936675815E-02
328,17.7246666666667
329,22.4058521759187
330,22.4711555650185
331,21.9586094398506
332,21.9586094398506
333,22.4058521759187
334,22.4058521759187
2,1, 7,21, 0, 8, 0.00,60.00,SummerDesignDay
6,19.6753333333333
7,10.6006708064076
8,4.256998718575855E-03
9,30.0773246345504
10,22.7034361812062
135,0.0
323,22.5887534239001
324,22.4930010047781
325,22.5222899237016
326,22.2018795573127
327,7.525144936675815E-02
328,19.6753333333333
329,22.5887534239001
330,22.7034361812062
331,22.2018795573127
332,22.2018795573127
333,22.5887534239001
334,22.5887534239001
2,1, 7,21, 0, 9, 0.00,60.00,SummerDesignDay
6,22.4366666666667
7,11.7721935364963
8,4.256999093749401E-03
9,25.3895900386771
10,22.5219307877875
135,0.0
323,22.4690777549122
324,22.4763615950962
325,22.5098346454267
326,22.0929975960006
327,8.600165641915231E-02
328,22.4366666666667
329,22.4690777549122
330,22.5219307877875
331,22.0929975960006
332,22.0929975960006
333,22.4690777549122
334,22.4690777549122
2,1, 7,21, 0,10, 0.00,60.00,SummerDesignDay
6,25.1473333333333
7,12.8791483986938
8,4.256998299309331E-03
9,21.5617419787647
10,22.4443035577807
135,0.0
323,22.3431138457573
324,22.5421419354074
325,22.600719773731
326,21.7883908688116
327,0.150502898733516
328,25.1473333333333
329,22.3431138457573
330,22.4443035577807
331,21.7883908688116
332,21.7883908688116
333,22.3431138457573
334,22.3431138457573
2,1, 7,21, 0,11, 0.00,60.00,SummerDesignDay
6,27.554
7,13.8274581335847
8,4.256998106268652E-03
9,18.7022003918041
10,22.7515334377821
135,0.0
323,22.6213193028022
324,23.5646751016996
325,23.7208826702871
326,21.3552116445626
327,0.401341063289377
328,27.554
329,22.6213193028022
330,22.7515334377821
331,21.3552116445626
332,21.3552116445626
333,22.6213193028022
334,22.6213193028022
2,1, 7,21, 0,12, 0.00,60.00,SummerDesignDay
6,29.3906666666667
7,14.5307374760581
8,4.256997326055694E-03
9,16.8024981543193
10,22.6485701266144
135,0.0
323,22.5210224203168
324,23.6080285547789
325,23.7251842314325
326,21.7931683463553
327,0.301005797467033
328,29.3906666666667
329,22.5210224203168
330,22.6485701266144
331,21.7931683463553
332,21.7931683463553
333,22.5210224203168
334,22.5210224203168
2,1, 7,21, 0,13, 0.00,60.00,SummerDesignDay
6,30.7333333333333
7,15.0336318014555
8,4.256996026009087E-03
9,15.5545915807596
10,24.3746564388539
135,0.0
323,24.1890576178358
324,24.1890576178358
325,24.1890576178358
326,24.1890576178358
327,0.0
328,30.7333333333333
329,24.1890576178358
330,24.3746564388539
331,24.1890576178358
332,24.1890576178358
333,24.1890576178358
334,24.1890576178358
2,1, 7,21, 0,14, 0.00,60.00,SummerDesignDay
6,31.6833333333333
7,15.3840928168379
8,4.256997843998967E-03
9,14.7342777159822
10,25.6566917090984
135,0.0
323,25.4762762959777
324,25.4762762959777
325,25.4762762959777
326,25.4762762959777
327,0.0
328,31.6833333333333
329,25.4762762959777
330,25.6566917090984
331,25.4762762959777
332,25.4762762959777
333,25.4762762959777
334,25.4762762959777
2,1, 7,21, 0,15, 0.00,60.00,SummerDesignDay
6,32.
7,15.4999886262222
8,4.257000711494534E-03
9,14.4712294492673
10,26.5445488885619
135,0.0
323,26.4460100346273
324,26.4460100346273
325,26.4460100346273
326,26.4460100346273
327,0.0
328,32.
329,26.4460100346273
330,26.5445488885619
331,26.4460100346273
332,26.4460100346273
333,26.4460100346273
334,26.4460100346273
2,1, 7,21, 0,16, 0.00,60.00,SummerDesignDay
6,31.468
7,15.3050356785274
8,4.256998455129464E-03
9,14.9159475711714
10,26.9371625222396
135,0.0
323,26.89105563018
324,26.89105563018
325,26.89105563018
326,26.89105563018
327,0.0
328,31.468
329,26.89105563018
330,26.9371625222396
331,26.89105563018
332,26.89105563018
333,26.89105563018
334,26.89105563018
2,1, 7,21, 0,17, 0.00,60.00,SummerDesignDay
6,30.3786666666667
7,14.9017226549788
8,4.256998782712591E-03
9,15.8732083445516
10,26.3801466923265
135,0.0
323,26.2983408154689
324,26.4678605989796
325,26.4971495179988
326,25.9839059836461
327,7.525144936675815E-02
328,30.3786666666667
329,26.2983408154689
330,26.3801466923265
331,25.9839059836461
332,25.9839059836461
333,26.2983408154689
334,26.2983408154689
2,1, 7,21, 0,18, 0.00,60.00,SummerDesignDay
6,28.9853333333333
7,14.377173111203
8,4.256997863074253E-03
9,17.2005299018761
10,26.9377282292576
135,0.0
323,26.9052462752791
324,26.9052462752791
325,26.9052462752791
326,26.9052462752791
327,0.0
328,28.9853333333333
329,26.9052462752791
330,26.9377282292576
331,26.9052462752791
332,26.9052462752791
333,26.9052462752791
334,26.9052462752791
2,1, 7,21, 0,19, 0.00,60.00,SummerDesignDay
6,27.022
7,13.6206064249242
8,4.256997128434723E-03
9,19.2944336515819
10,26.7598231343241
135,0.0
323,26.8337636749259
324,26.8337636749259
325,26.8337636749259
326,26.8337636749259
327,0.0
328,27.022
329,26.8337636749259
330,26.7598231343241
331,26.8337636749259
332,26.8337636749259
333,26.8337636749259
334,26.8337636749259
2,1, 7,21, 0,20, 0.00,60.00,SummerDesignDay
6,25.0966666666667
7,12.8597275648145
8,4.256998216045344E-03
9,21.6133208179358
10,26.1355313584198
135,0.0
323,26.2358112587557
324,26.2358112587557
325,26.2358112587557
326,26.2358112587557
327,0.0
328,25.0966666666667
329,26.2358112587557
330,26.1355313584198
331,26.2358112587557
332,26.2358112587557
333,26.2358112587557
334,26.2358112587557
2,1, 7,21, 0,21, 0.00,60.00,SummerDesignDay
6,23.602
7,12.2546094457947
8,4.256998253614882E-03
9,23.6346507039307
10,25.7277414801069
135,0.0
323,25.7790472885477
324,25.7790472885477
325,25.7790472885477
326,25.7790472885477
327,0.0
328,23.602
329,25.7790472885477
330,25.7277414801069
331,25.7790472885477
332,25.7790472885477
333,25.7790472885477
334,25.7790472885477
2,1, 7,21, 0,22, 0.00,60.00,SummerDesignDay
6,22.234
7,11.6892958268445
8,4.256997755350084E-03
9,25.6765899835518
10,25.4675319557562
135,0.0
323,25.5087117536594
324,25.5087117536594
325,25.5087117536594
326,25.5087117536594
327,0.0
328,22.234
329,25.5087117536594
330,25.4675319557562
331,25.5087117536594
332,25.5087117536594
333,25.5087117536594
334,25.5087117536594
2,1, 7,21, 0,23, 0.00,60.00,SummerDesignDay
6,21.0433333333333
7,11.1884202977588
8,4.256999170978177E-03
9,27.6130411680743
10,25.2241057370663
135,0.0
323,25.2640885623179
324,25.2640885623179
325,25.2640885623179
326,25.2640885623179
327,0.0
328,21.0433333333333
329,25.2640885623179
330,25.2241057370663
331,25.2640885623179
332,25.2640885623179
333,25.2640885623179
334,25.2640885623179
2,1, 7,21, 0,24, 0.00,60.00,SummerDesignDay
6,19.9793333333333
7,10.7333761443098
8,4.256999095721535E-03
9,29.4867361677423
10,24.9827197729416
135,0.0
323,25.0236786245183
324,25.0236786245183
325,25.0236786245183
326,25.0236786245183
327,0.0
328,19.9793333333333
329,25.0236786245183
330,24.9827197729416
331,25.0236786245183
332,25.0236786245183
333,25.0236786245183
334,25.0236786245183
1,San Francisco Intl Ap CA USA TMY3 WMO#=724940,  37.62,-122.40,  -8.00,   2.00
2,1, 1, 1, 0, 1, 0.00,60.00,Tuesday
6,6.99166666666667
7,5.98219427456914
8,5.328670880331380E-03
9,86.6666666666667
10,20.
135,2081.44517774528
323,20.
324,20.
325,20.
326,20.
327,0.0
328,6.99166666666667
329,20.
330,20.
331,20.
332,20.
333,20.
334,20.
2,1, 1, 1, 0, 2, 0.00,60.00,Tuesday
6,7.2
7,6.43929113563116
8,5.617291474285259E-03
9,90.
10,20.
135,2091.46860331531
323,20.
324,20.
325,20.
326,20.
327,0.0
328,7.2
329,20.
330,20.
331,20.
332,20.
333,20.
334,20.
2,1, 1, 1, 0, 3, 0.00,60.00,Tuesday
6,6.90833333333333
7,6.11176500705686
8,5.468573722842361E-03
9,89.4166666666667
10,20.
135,2119.98325575207
323,20.
324,20.
325,20.
326,20.
327,0.0
328,6.90833333333333
329,20.
330,20.
331,20.
332,20.
333,20.
334,20.
2,1, 1, 1, 0, 4, 0.00,60.00,Tuesday
6,6.35
7,5.71234878373652
8,5.371291686564916E-03
9,91.3333333333333
10,20.
135,2281.57127645071
323,20.
324,20.
325,20.
326,20.
327,0.0
328,6.35
329,20.
330,20.
331,20.
332,20.
333,20.
334,20.
2,1, 1, 1, 0, 5, 0.00,60.00,Tuesday
6,5.10833333333333
7,4.78148106549222
8,5.143164247627723E-03
9,95.3333333333333
10,20.
135,2439.69592066813
323,20.
324,20.
325,20.
326,20.
327,0.0
328,5.10833333333333
329,20.
330,20.
331,20.
332,20.
333,20.
334,20.
2,1, 1, 1, 0, 6, 0.00,60.00,Tuesday
6,4.4
7,4.19719364971979
8,4.978526918594479E-03
9,97.
10,20.
135,2548.40632885346
323,20.
324,20.
325,20.
326,20.
327,0.0
328,4.4
329,20.
330,20.
331,20.
332,20.
333,20.
334,20.
2,1, 1, 1, 0, 7, 0.00,60.00,Tuesday
6,5.39166666666667
7,4.84603524075559
8,5.077798469883900E-03
9,92.3333333333333
10,20.
135,2579.40378572387
323,20.
324,20.
325,20.
326,20.
327,0.0
328,5.39166666666667
329,20.
330,20.
331,20.
332,20.
333,20.
334,20.
2,1, 1, 1, 0, 8, 0.00,60.00,Tuesday
6,5.45833333333333
7,4.55023326130211
8,4.822222219854900E-03
9,87.25
10,20.
135,2323.4676429173
323,20.
324,20.
325,20.
326,20.
327,0.0
328,5.45833333333333
329,20.
330,20.
331,20.
332,20.
333,20.
334,20.
2,1, 1, 1, 0, 9, 0.00,60.00,Tuesday
6,6.63333333333333
7,5.40615706724955
8,5.015073983919036E-03
9,83.6666666666667
10,20.
135,1160.05230687377
323,20.
324,20.
325,20.
326,20.
327,0.0
328,6.63333333333333
329,20.
330,20.
331,20.
332,20.
333,20.
334,20.
2,1, 1, 1, 0,10, 0.00,60.00,Tuesday
6,8.44166666666667
7,7.18637090401034
8,5.723534710689534E-03
9,84.3333333333333
10,20.
135,383.874536381043
323,20.
324,20.
325,20.
326,20.
327,0.0
328,8.44166666666667
329,20.
330,20.
331,20.
332,20.
333,20.
334,20.
2,1, 1, 1, 0,11, 0.00,60.00,Tuesday
6,9.19166666666667
7,8.04051346035657
8,6.141649814175973E-03
9,86.
10,20.
135,154.577303916276
323,20.
324,20.
325,20.
326,20.
327,0.0
328,9.19166666666667
329,20.
330,20.
331,20.
332,20.
333,20.
334,20.
2,1, 1, 1, 0,12, 0.00,60.00,Tuesday
6,9.75
7,8.4248126327475
8,6.251027142074332E-03
9,84.25
10,20.
135,178.034608274217
323,20.
324,20.
325,20.
326,20.
327,0.0
328,9.75
329,20.
330,20.
331,20.
332,20.
333,20.
334,20.
2,1, 1, 1, 0,13, 0.00,60.00,Tuesday
6,10.35
7,8.88689636501453
8,6.415825384733520E-03
9,83.
10,20.
135,94.5869753263348
323,20.
324,20.
325,20.
326,20.
327,0.0
328,10.35
329,20.
330,20.
331,20.
332,20.
333,20.
334,20.
2,1, 1, 1, 0,14, 0.00,60.00,Tuesday
6,10.8916666666667
7,9.40049128943661
8,6.658010501406891E-03
9,83.
10,20.1337108981476
135,0.0
323,20.0834545493142
324,20.0834545493142
325,20.0834545493142
326,20.0834545493142
327,0.0
328,10.8916666666667
329,20.0834545493142
330,20.1337108981476
331,20.0834545493142
332,20.0834545493142
333,20.0834545493142
334,20.0834545493142
2,1, 1, 1, 0,15, 0.00,60.00,Tuesday
6,12.7333333333333
7,9.38215173456705
8,5.899056308327405E-03
9,65.5
10,20.5962765797953
135,0.0
323,20.5189720168074
324,20.5189720168074
325,20.5189720168074
326,20.5189720168074
327,0.0
328,12.7333333333333
329,20.5189720168074
330,20.5962765797953
331,20.5189720168074
332,20.5189720168074
333,20.5189720168074
334,20.5189720168074
2,1, 1, 1, 0,16, 0.00,60.00,Tuesday
6,13.9
7,8.71147399030012
8,4.828792515114442E-03
9,49.5
10,20.6317683291872
135,0.0
323,20.7002052816556
324,20.7002052816556
325,20.7002052816556
326,20.7002052816556
327,0.0
328,13.9
329,20.7002052816556
330,20.6317683291872
331,20.7002052816556
332,20.7002052816556
333,20.7002052816556
334,20.7002052816556
2,1, 1, 1, 0,17, 0.00,60.00,Tuesday
6,12.2666666666667
7,8.69772638273567
8,5.476199378131535E-03
9,62.75
10,20.0285873306349
135,626.855959056456
323,20.0877112899878
324,20.0877112899878
325,20.0877112899878
326,20.0877112899878
327,0.0
328,12.2666666666667
329,20.0877112899878
330,20.0285873306349
331,20.0877112899878
332,20.0877112899878
333,20.0877112899878
334,20.0877112899878
2,1, 1, 1, 0,18, 0.00,60.00,Tuesday
6,11.1
7,8.49837502730909
8,5.775615964775631E-03
9,71.0833333333333
10,20.
135,1043.14559051511
323,20.
324,20.
325,20.
326,20.
327,0.0
328,11.1
329,20.
330,20.
331,20.
332,20.
333,20.
334,20.
2,1, 1, 1, 0,19, 0.00,60.00,Tuesday
6,10.8083333333333
7,7.4339575809532
8,4.983702492148867E-03
9,62.5833333333333
10,20.
135,1203.98056206013
323,20.
324,20.
325,20.
326,20.
327,0.0
328,10.8083333333333
329,20.
330,20.
331,20.
332,20.
333,20.
334,20.
2,1, 1, 1, 0,20, 0.00,60.00,Tuesday
6,10.6
7,6.98258585514403
8,4.685025366732351E-03
9,59.75
10,20.
135,1294.08281918181
323,20.
324,20.
325,20.
326,20.
327,0.0
328,10.6
329,20.
330,20.
331,20.
332,20.
333,20.
334,20.
2,1, 1, 1, 0,21, 0.00,60.00,Tuesday
6,9.60833333333333
7,6.49838616941143
8,4.686736339666230E-03
9,63.9166666666667
10,20.
135,1458.24263633404
323,20.
324,20.
325,20.
326,20.
327,0.0
328,9.60833333333333
329,20.
330,20.
331,20.
332,20.
333,20.
334,20.
2,1, 1, 1, 0,22, 0.00,60.00,Tuesday
6,9.19166666666667
7,6.05732202354671
8,4.496692830833161E-03
9,63.0833333333333
10,20.
135,1586.527060971
323,20.
324,20.
325,20.
326,20.
327,0.0
328,9.19166666666667
329,20.
330,20.
331,20.
332,20.
333,20.
334,20.
2,1, 1, 1, 0,23, 0.00,60.00,Tuesday
6,8.46666666666667
7,5.98214253561453
8,4.729667422423335E-03
9,69.75
10,20.
135,1751.87258297336
323,20.
324,20.
325,20.
326,20.
327,0.0
328,8.46666666666667
329,20.
330,20.
331,20.
332,20.
333,20.
334,20.
2,1, 1, 1, 0,24, 0.00,60.00,Tuesday
6,7.15833333333333
7,5.58002794078762
8,4.938345690810225E-03
9,79.5
10,20.
135,1946.63664865493
323,20.
324,20.
325,20.
326,20.
327,0.0
328,7.15833333333333
329,20.
330,20.
331,20.
332,20.
333,20.
334,20.
2,2, 1, 2, 0, 1, 0.00,60.00,Wednesday
6,7.98333333333333
7,6.60709725281986
8,5.438273566556279E-03
9,82.5833333333333
10,20.
135,1925.66135519155
323,20.
324,20.
325,20.
326,20.
327,0.0
328,7.98333333333333
329,20.
330,20.
331,20.
332,20.
333,20.
334,20.
2,2, 1, 2, 0, 2, 0.00,60.00,Wednesday
6,7.26666666666667
7,5.77851340190784
8,5.061162601557606E-03
9,80.6666666666667
10,20.
135,2137.35592641062
323,20.
324,20.
325,20.
326,20.
327,0.0
328,7.26666666666667
329,20.
330,20.
331,20.
332,20.
333,20.
334,20.
2,2, 1, 2, 0, 3, 0.00,60.00,Wednesday
6,5.80833333333333
7,4.53573054927816
8,4.667878530322148E-03
9,82.5
10,20.
135,2428.07638230424
323,20.
324,20.
325,20.
326,20.
327,0.0
328,5.80833333333333
329,20.
330,20.
331,20.
332,20.
333,20.
334,20.
2,2, 1, 2, 0, 4, 0.00,60.00,Wednesday
6,4.60833333333333
7,3.61311248452383
8,4.457704390924566E-03
9,85.5833333333333
10,20.
135,2612.40235171646
323,20.
324,20.
325,20.
326,20.
327,0.0
328,4.60833333333333
329,20.
330,20.
331,20.
332,20.
333,20.
334,20.
2,2, 1, 2, 0, 5, 0.00,60.00,Wednesday
6,4.89166666666667
7,3.87276594737771
8,4.540474469591071E-03
9,85.4166666666667
10,20.
135,2618.20569300138
323,20.
324,20.
325,20.
326,20.
327,0.0
328,4.89166666666667
329,20.
330,20.
331,20.
332,20.
333,20.
334,20.
2,2, 1, 2, 0, 6, 0.00,60.00,Wednesday
6,6.53333333333333
7,5.18996972217202
8,4.889619047418149E-03
9,82.0833333333333
10,20.
135,2413.62962873198
323,20.
324,20.
325,20.
326,20.
327,0.0
328,6.53333333333333
329,20.
330,20.
331,20.
332,20.
333,20.
334,20.
2,2, 1, 2, 0, 7, 0.00,60.00,Wednesday
6,7.55
7,5.56425912832824
8,4.772456930016024E-03
9,74.75
10,20.
135,2285.49604081038
323,20.
324,20.
325,20.
326,20.
327,0.0
328,7.55
329,20.
330,20.
331,20.
332,20.
333,20.
334,20.
2,2, 1, 2, 0, 8, 0.00,60.00,Wednesday
6,7.45
7,5.59275459735339
8,4.835586683489418E-03
9,76.25
10,20.
135,2139.61492883708
323,20.
324,20.
325,20.
326,20.
327,0.0
328,7.45
329,20.
330,20.
331,20.
332,20.
333,20.
334,20.
2,2, 1, 2, 0, 9, 0.00,60.00,Wednesday
6,9.18333333333333
7,6.3852610030778
8,4.772548623230183E-03
9,67.1666666666667
10,20.
135,1486.06332638302
323,20.
324,20.
325,20.
326,20.
327,0.0
328,9.18333333333333
329,20.
330,20.
331,20.
332,20.
333,20.
334,20.
2,2, 1, 2, 0,10, 0.00,60.00,Wednesday
6,11.2416666666667
7,7.25126789879933
8,4.652978909639539E-03
9,56.8333333333333
10,20.
135,908.592396429997
323,20.
324,20.
325,20.
326,20.
327,0.0
328,11.2416666666667
329,20.
330,20.
331,20.
332,20.
333,20.
334,20.
2,2, 1, 2, 0,11, 0.00,60.00,Wednesday
6,12.9833333333333
7,7.89222119480345
8,4.488845337378995E-03
9,49.
10,20.
135,481.949359495125
323,20.
324,20.
325,20.
326,20.
327,0.0
328,12.9833333333333
329,20.
330,20.
331,20.
332,20.
333,20.
334,20.
2,2, 1, 2, 0,12, 0.00,60.00,Wednesday
6,13.9
7,8.28787484871886
8,4.461034815903690E-03
9,45.75
10,20.
135,163.054232372685
323,20.
324,20.
325,20.
326,20.
327,0.0
328,13.9
329,20.
330,20.
331,20.
332,20.
333,20.
334,20.
2,2, 1, 2, 0,13, 0.00,60.00,Wednesday
6,13.9
7,8.69030915327337
8,4.817917850155748E-03
9,49.3333333333333
10,20.0790438495639
135,14.4876576826444
323,20.0403483730395
324,20.0403483730395
325,20.0403483730395
326,20.0403483730395
327,0.0
328,13.9
329,20.0403483730395
330,20.0790438495639
331,20.0403483730395
332,20.0403483730395
333,20.0403483730395
334,20.0403483730395
2,2, 1, 2, 0,14, 0.00,60.00,Wednesday
6,13.9
7,9.00488867068349
8,5.101901944030101E-03
9,52.1666666666667
10,20.3432394946628
135,0.0
323,20.3247622787356
324,20.3247622787356
325,20.3247622787356
326,20.3247622787356
327,0.0
328,13.9
329,20.3247622787356
330,20.3432394946628
331,20.3247622787356
332,20.3247622787356
333,20.3247622787356
334,20.3247622787356
2,2, 1, 2, 0,15, 0.00,60.00,Wednesday
6,12.9083333333333
7,9.52931130795485
8,5.978051701661448E-03
9,65.25
10,20.3126010280894
135,0.0
323,20.3256239124238
324,20.3256239124238
325,20.3256239124238
326,20.3256239124238
327,0.0
328,12.9083333333333
329,20.3256239124238
330,20.3126010280894
331,20.3256239124238
332,20.3256239124238
333,20.3256239124238
334,20.3256239124238
2,2, 1, 2, 0,16, 0.00,60.00,Wednesday
6,12.55
7,9.40080168873618
8,6.007706695208320E-03
9,67.
10,20.1083234141597
135,96.4885832077094
323,20.1524732222769
324,20.1524732222769
325,20.1524732222769
326,20.1524732222769
327,0.0
328,12.55
329,20.1524732222769
330,20.1083234141597
331,20.1524732222769
332,20.1524732222769
333,20.1524732222769
334,20.1524732222769
2,2, 1, 2, 0,17, 0.00,60.00,Wednesday
6,11.8083333333333
7,9.09577003438374
8,6.039521595330669E-03
9,70.75
10,20.
135,857.203534851953
323,20.
324,20.
325,20.
326,20.
327,0.0
328,11.8083333333333
329,20.
330,20.
331,20.
332,20.
333,20.
334,20.
2,2, 1, 2, 0,18, 0.00,60.00,Wednesday
6,10.8083333333333
7,8.77516999393671
8,6.160812652232450E-03
9,77.
10,20.
135,1205.9645358645
323,20.
324,20.
325,20.
326,20.
327,0.0
328,10.8083333333333
329,20.
330,20.
331,20.
332,20.
333,20.
334,20.
2,2, 1, 2, 0,19, 0.00,60.00,Wednesday
6,11.2416666666667
7,8.2908582790905
8,5.557739970336608E-03
9,67.6666666666667
10,20.
135,1373.91780391599
323,20.
324,20.
325,20.
326,20.
327,0.0
328,11.2416666666667
329,20.
330,20.
331,20.
332,20.
333,20.
334,20.
2,2, 1, 2, 0,20, 0.00,60.00,Wednesday
6,11.7
7,7.64638852528107
8,4.818959843881854E-03
9,56.9166666666667
10,20.
135,1376.73596349268
323,20.
324,20.
325,20.
326,20.
327,0.0
328,11.7
329,20.
330,20.
331,20.
332,20.
333,20.
334,20.
2,2, 1, 2, 0,21, 0.00,60.00,Wednesday
6,10.7083333333333
7,7.61820670546579
8,5.196738427199732E-03
9,65.6666666666667
10,20.
135,1484.9673244889
323,20.
324,20.
325,20.
326,20.
327,0.0
328,10.7083333333333
329,20.
330,20.
331,20.
332,20.
333,20.
334,20.
2,2, 1, 2, 0,22, 0.00,60.00,Wednesday
6,9.35833333333333
7,7.76743111487308
8,5.871825770652627E-03
9,81.
10,20.
135,1754.61339072167
323,20.
324,20.
325,20.
326,20.
327,0.0
328,9.35833333333333
329,20.
330,20.
331,20.
332,20.
333,20.
334,20.
2,2, 1, 2, 0,23, 0.00,60.00,Wednesday
6,9.19166666666667
7,7.7418309949395
8,5.913946423522613E-03
9,82.5
10,20.
135,1896.88134043183
323,20.
324,20.
325,20.
326,20.
327,0.0
328,9.19166666666667
329,20.
330,20.
331,20.
332,20.
333,20.
334,20.
2,2, 1, 2, 0,24, 0.00,60.00,Wednesday
6,9.10833333333333
7,7.10364877128017
8,5.407417185132486E-03
9,75.9166666666667
10,20.
135,1982.15173887337
323,20.
324,20.
325,20.
326,20.
327,0.0
328,9.10833333333333
329,20.
330,20.
331,20.
332,20.
333,20.
334,20.
2,3, 1, 3, 0, 1, 0.00,60.00,Thursday
6,9.19166666666667
7,7.28131663808305
8,5.522457304000979E-03
9,77.0833333333333
10,20.
135,1930.17476935395
323,20.
324,20.
325,20.
326,20.
327,0.0
328,9.19166666666667
329,20.
330,20.
331,20.
332,20.
333,20.
334,20.
2,3, 1, 3, 0, 2, 0.00,60.00,Thursday
6,9.75
7,7.43599696919236
8,5.425111985800278E-03
9,73.
10,20.
135,1798.36983457386
323,20.
324,20.
325,20.
326,20.
327,0.0
328,9.75
329,20.
330,20.
331,20.
332,20.
333,20.
334,20.
2,3, 1, 3, 0, 3, 0.00,60.00,Thursday
6,11.2833333333333
7,7.50887697420134
8,4.864678231951256E-03
9,59.25
10,20.
135,1703.47493398794
323,20.
324,20.
325,20.
326,20.
327,0.0
328,11.2833333333333
329,20.
330,20.
331,20.
332,20.
333,20.
334,20.
2,3, 1, 3, 0, 4, 0.00,60.00,Thursday
6,13.1916666666667
7,7.7959618912751